 LAMMPS 2d micelle data file

        8134  atoms
        3234  bonds
           0  angles
           0  dihedrals
           0  impropers

           8  atom types
           1  bond types
           0  angle types
           0  dihedral types
           0  improper types

   0.00000000       94.3879852      xlo xhi
   0.00000000       94.3879852      ylo yhi
 -0.100000001      0.100000001      zlo zhi

 Masses

           1   1.00000000    
           2   1.00000000    
           3   1.00000000    
           4   1.00000000    
           5   1.00000000    
           6   1.00000000    
           7   1.00000000    
           8   1.00000000    

 Atoms

      1      0      1   0.000   0.000   0.000
      2      0      1   1.348   0.000   0.000
      3      0      1   2.697   0.000   0.000
      4      0      1   4.045   0.000   0.000
      5      0      1   5.394   0.000   0.000
      6      0      1   6.742   0.000   0.000
      7      0      1   8.090   0.000   0.000
      8      0      1   9.439   0.000   0.000
      9      0      1  10.787   0.000   0.000
     10      0      1  12.136   0.000   0.000
     11    490      2  13.484   0.000   0.000
     12    499      2  14.832   0.000   0.000
     13      0      1  16.181   0.000   0.000
     14    274      2  17.529   0.000   0.000
     15      0      1  18.878   0.000   0.000
     16    446      2  20.226   0.000   0.000
     17      0      1  21.574   0.000   0.000
     18      0      1  22.923   0.000   0.000
     19      0      1  24.271   0.000   0.000
     20      0      1  25.620   0.000   0.000
     21    520      2  26.968   0.000   0.000
     22      0      1  28.316   0.000   0.000
     23      0      1  29.665   0.000   0.000
     24      0      1  31.013   0.000   0.000
     25      0      1  32.362   0.000   0.000
     26      0      1  33.710   0.000   0.000
     27      0      1  35.058   0.000   0.000
     28      0      1  36.407   0.000   0.000
     29      0      1  37.755   0.000   0.000
     30      0      1  39.104   0.000   0.000
     31      0      1  40.452   0.000   0.000
     32      0      1  41.800   0.000   0.000
     33      0      1  43.149   0.000   0.000
     34      0      1  44.497   0.000   0.000
     35      0      1  45.846   0.000   0.000
     36      0      1  47.194   0.000   0.000
     37      0      1  48.542   0.000   0.000
     38      0      1  49.891   0.000   0.000
     39      0      1  51.239   0.000   0.000
     40      0      1  52.588   0.000   0.000
     41      0      1  53.936   0.000   0.000
     42      0      1  55.284   0.000   0.000
     43      0      1  56.633   0.000   0.000
     44      0      1  57.981   0.000   0.000
     45      0      1  59.330   0.000   0.000
     46    393      2  60.678   0.000   0.000
     47      0      1  62.026   0.000   0.000
     48      0      1  63.375   0.000   0.000
     49      0      1  64.723   0.000   0.000
     50      0      1  66.072   0.000   0.000
     51      0      1  67.420   0.000   0.000
     52      0      1  68.768   0.000   0.000
     53      0      1  70.117   0.000   0.000
     54      0      1  71.465   0.000   0.000
     55      0      1  72.814   0.000   0.000
     56      0      1  74.162   0.000   0.000
     57      0      1  75.510   0.000   0.000
     58      0      1  76.859   0.000   0.000
     59      0      1  78.207   0.000   0.000
     60      0      1  79.556   0.000   0.000
     61     53      2  80.904   0.000   0.000
     62      0      1  82.252   0.000   0.000
     63      0      1  83.601   0.000   0.000
     64      0      1  84.949   0.000   0.000
     65      0      1  86.298   0.000   0.000
     66      0      1  87.646   0.000   0.000
     67      0      1  88.994   0.000   0.000
     68      0      1  90.343   0.000   0.000
     69      0      1  91.691   0.000   0.000
     70      0      1  93.040   0.000   0.000
     71      0      1   0.000   1.348   0.000
     72      0      1   1.348   1.348   0.000
     73      0      1   2.697   1.348   0.000
     74    539      2   4.045   1.348   0.000
     75      0      1   5.394   1.348   0.000
     76      0      1   6.742   1.348   0.000
     77      0      1   8.090   1.348   0.000
     78      0      1   9.439   1.348   0.000
     79      0      1  10.787   1.348   0.000
     80      0      1  12.136   1.348   0.000
     81      0      1  13.484   1.348   0.000
     82      0      1  14.832   1.348   0.000
     83      0      1  16.181   1.348   0.000
     84      0      1  17.529   1.348   0.000
     85      0      1  18.878   1.348   0.000
     86      0      1  20.226   1.348   0.000
     87    241      2  21.574   1.348   0.000
     88      0      1  22.923   1.348   0.000
     89      0      1  24.271   1.348   0.000
     90      0      1  25.620   1.348   0.000
     91    254      2  26.968   1.348   0.000
     92      0      1  28.316   1.348   0.000
     93      0      1  29.665   1.348   0.000
     94      0      1  31.013   1.348   0.000
     95      0      1  32.362   1.348   0.000
     96      0      1  33.710   1.348   0.000
     97      0      1  35.058   1.348   0.000
     98      0      1  36.407   1.348   0.000
     99    289      2  37.755   1.348   0.000
    100      0      1  39.104   1.348   0.000
    101      0      1  40.452   1.348   0.000
    102    181      2  41.800   1.348   0.000
    103      0      1  43.149   1.348   0.000
    104      0      1  44.497   1.348   0.000
    105      0      1  45.846   1.348   0.000
    106      0      1  47.194   1.348   0.000
    107      0      1  48.542   1.348   0.000
    108      0      1  49.891   1.348   0.000
    109      0      1  51.239   1.348   0.000
    110      0      1  52.588   1.348   0.000
    111      0      1  53.936   1.348   0.000
    112      0      1  55.284   1.348   0.000
    113      0      1  56.633   1.348   0.000
    114      0      1  57.981   1.348   0.000
    115      0      1  59.330   1.348   0.000
    116      0      1  60.678   1.348   0.000
    117      0      1  62.026   1.348   0.000
    118      0      1  63.375   1.348   0.000
    119      0      1  64.723   1.348   0.000
    120      0      1  66.072   1.348   0.000
    121      0      1  67.420   1.348   0.000
    122    487      2  68.768   1.348   0.000
    123      0      1  70.117   1.348   0.000
    124      0      1  71.465   1.348   0.000
    125    233      2  72.814   1.348   0.000
    126      0      1  74.162   1.348   0.000
    127      0      1  75.510   1.348   0.000
    128      0      1  76.859   1.348   0.000
    129      0      1  78.207   1.348   0.000
    130    507      2  79.556   1.348   0.000
    131      0      1  80.904   1.348   0.000
    132      0      1  82.252   1.348   0.000
    133      0      1  83.601   1.348   0.000
    134    148      2  84.949   1.348   0.000
    135    134      2  86.298   1.348   0.000
    136      0      1  87.646   1.348   0.000
    137      0      1  88.994   1.348   0.000
    138      0      1  90.343   1.348   0.000
    139      0      1  91.691   1.348   0.000
    140      0      1  93.040   1.348   0.000
    141      0      1   0.000   2.697   0.000
    142      0      1   1.348   2.697   0.000
    143      0      1   2.697   2.697   0.000
    144      0      1   4.045   2.697   0.000
    145      0      1   5.394   2.697   0.000
    146      0      1   6.742   2.697   0.000
    147      0      1   8.090   2.697   0.000
    148      0      1   9.439   2.697   0.000
    149      0      1  10.787   2.697   0.000
    150    212      2  12.136   2.697   0.000
    151      0      1  13.484   2.697   0.000
    152      0      1  14.832   2.697   0.000
    153      0      1  16.181   2.697   0.000
    154      0      1  17.529   2.697   0.000
    155      0      1  18.878   2.697   0.000
    156      0      1  20.226   2.697   0.000
    157      0      1  21.574   2.697   0.000
    158      0      1  22.923   2.697   0.000
    159      0      1  24.271   2.697   0.000
    160      0      1  25.620   2.697   0.000
    161      0      1  26.968   2.697   0.000
    162      0      1  28.316   2.697   0.000
    163      0      1  29.665   2.697   0.000
    164      0      1  31.013   2.697   0.000
    165      0      1  32.362   2.697   0.000
    166      0      1  33.710   2.697   0.000
    167      0      1  35.058   2.697   0.000
    168      0      1  36.407   2.697   0.000
    169      0      1  37.755   2.697   0.000
    170      0      1  39.104   2.697   0.000
    171      0      1  40.452   2.697   0.000
    172      0      1  41.800   2.697   0.000
    173      0      1  43.149   2.697   0.000
    174      0      1  44.497   2.697   0.000
    175      0      1  45.846   2.697   0.000
    176      0      1  47.194   2.697   0.000
    177      0      1  48.542   2.697   0.000
    178      0      1  49.891   2.697   0.000
    179      0      1  51.239   2.697   0.000
    180      0      1  52.588   2.697   0.000
    181      0      1  53.936   2.697   0.000
    182      0      1  55.284   2.697   0.000
    183    398      2  56.633   2.697   0.000
    184    495      2  57.981   2.697   0.000
    185      0      1  59.330   2.697   0.000
    186    362      2  60.678   2.697   0.000
    187     78      2  62.026   2.697   0.000
    188      0      1  63.375   2.697   0.000
    189      0      1  64.723   2.697   0.000
    190      0      1  66.072   2.697   0.000
    191      0      1  67.420   2.697   0.000
    192      0      1  68.768   2.697   0.000
    193      0      1  70.117   2.697   0.000
    194      0      1  71.465   2.697   0.000
    195      0      1  72.814   2.697   0.000
    196      0      1  74.162   2.697   0.000
    197      0      1  75.510   2.697   0.000
    198      0      1  76.859   2.697   0.000
    199      0      1  78.207   2.697   0.000
    200      0      1  79.556   2.697   0.000
    201      0      1  80.904   2.697   0.000
    202      0      1  82.252   2.697   0.000
    203      0      1  83.601   2.697   0.000
    204      0      1  84.949   2.697   0.000
    205      0      1  86.298   2.697   0.000
    206     92      2  87.646   2.697   0.000
    207      0      1  88.994   2.697   0.000
    208    150      2  90.343   2.697   0.000
    209      0      1  91.691   2.697   0.000
    210      0      1  93.040   2.697   0.000
    211      0      1   0.000   4.045   0.000
    212      0      1   1.348   4.045   0.000
    213      0      1   2.697   4.045   0.000
    214     98      2   4.045   4.045   0.000
    215      0      1   5.394   4.045   0.000
    216      0      1   6.742   4.045   0.000
    217      0      1   8.090   4.045   0.000
    218      0      1   9.439   4.045   0.000
    219      0      1  10.787   4.045   0.000
    220      0      1  12.136   4.045   0.000
    221      0      1  13.484   4.045   0.000
    222      0      1  14.832   4.045   0.000
    223      0      1  16.181   4.045   0.000
    224      0      1  17.529   4.045   0.000
    225      0      1  18.878   4.045   0.000
    226      0      1  20.226   4.045   0.000
    227     35      2  21.574   4.045   0.000
    228      0      1  22.923   4.045   0.000
    229      0      1  24.271   4.045   0.000
    230      0      1  25.620   4.045   0.000
    231    267      2  26.968   4.045   0.000
    232      0      1  28.316   4.045   0.000
    233      0      1  29.665   4.045   0.000
    234      0      1  31.013   4.045   0.000
    235      0      1  32.362   4.045   0.000
    236      0      1  33.710   4.045   0.000
    237      0      1  35.058   4.045   0.000
    238      0      1  36.407   4.045   0.000
    239      0      1  37.755   4.045   0.000
    240      0      1  39.104   4.045   0.000
    241      0      1  40.452   4.045   0.000
    242      0      1  41.800   4.045   0.000
    243      0      1  43.149   4.045   0.000
    244      0      1  44.497   4.045   0.000
    245      0      1  45.846   4.045   0.000
    246      0      1  47.194   4.045   0.000
    247      0      1  48.542   4.045   0.000
    248      0      1  49.891   4.045   0.000
    249    476      2  51.239   4.045   0.000
    250      0      1  52.588   4.045   0.000
    251      0      1  53.936   4.045   0.000
    252      0      1  55.284   4.045   0.000
    253      0      1  56.633   4.045   0.000
    254      0      1  57.981   4.045   0.000
    255      0      1  59.330   4.045   0.000
    256      0      1  60.678   4.045   0.000
    257      0      1  62.026   4.045   0.000
    258      0      1  63.375   4.045   0.000
    259      0      1  64.723   4.045   0.000
    260      0      1  66.072   4.045   0.000
    261      0      1  67.420   4.045   0.000
    262      0      1  68.768   4.045   0.000
    263      0      1  70.117   4.045   0.000
    264      0      1  71.465   4.045   0.000
    265      0      1  72.814   4.045   0.000
    266      0      1  74.162   4.045   0.000
    267      0      1  75.510   4.045   0.000
    268    441      2  76.859   4.045   0.000
    269      0      1  78.207   4.045   0.000
    270      0      1  79.556   4.045   0.000
    271      0      1  80.904   4.045   0.000
    272      0      1  82.252   4.045   0.000
    273      0      1  83.601   4.045   0.000
    274      0      1  84.949   4.045   0.000
    275      0      1  86.298   4.045   0.000
    276      0      1  87.646   4.045   0.000
    277      0      1  88.994   4.045   0.000
    278      0      1  90.343   4.045   0.000
    279      0      1  91.691   4.045   0.000
    280      0      1  93.040   4.045   0.000
    281      0      1   0.000   5.394   0.000
    282      0      1   1.348   5.394   0.000
    283      0      1   2.697   5.394   0.000
    284    165      2   4.045   5.394   0.000
    285      0      1   5.394   5.394   0.000
    286      0      1   6.742   5.394   0.000
    287      0      1   8.090   5.394   0.000
    288      0      1   9.439   5.394   0.000
    289      0      1  10.787   5.394   0.000
    290      0      1  12.136   5.394   0.000
    291      0      1  13.484   5.394   0.000
    292      0      1  14.832   5.394   0.000
    293      0      1  16.181   5.394   0.000
    294      0      1  17.529   5.394   0.000
    295      0      1  18.878   5.394   0.000
    296      0      1  20.226   5.394   0.000
    297      0      1  21.574   5.394   0.000
    298      0      1  22.923   5.394   0.000
    299      0      1  24.271   5.394   0.000
    300    176      2  25.620   5.394   0.000
    301      0      1  26.968   5.394   0.000
    302      0      1  28.316   5.394   0.000
    303      0      1  29.665   5.394   0.000
    304      0      1  31.013   5.394   0.000
    305      0      1  32.362   5.394   0.000
    306      0      1  33.710   5.394   0.000
    307      0      1  35.058   5.394   0.000
    308      0      1  36.407   5.394   0.000
    309      0      1  37.755   5.394   0.000
    310      0      1  39.104   5.394   0.000
    311      0      1  40.452   5.394   0.000
    312      0      1  41.800   5.394   0.000
    313      0      1  43.149   5.394   0.000
    314      0      1  44.497   5.394   0.000
    315    190      2  45.846   5.394   0.000
    316      0      1  47.194   5.394   0.000
    317      0      1  48.542   5.394   0.000
    318      0      1  49.891   5.394   0.000
    319      0      1  51.239   5.394   0.000
    320      0      1  52.588   5.394   0.000
    321      0      1  53.936   5.394   0.000
    322      0      1  55.284   5.394   0.000
    323      0      1  56.633   5.394   0.000
    324      0      1  57.981   5.394   0.000
    325      0      1  59.330   5.394   0.000
    326      0      1  60.678   5.394   0.000
    327      0      1  62.026   5.394   0.000
    328      0      1  63.375   5.394   0.000
    329      0      1  64.723   5.394   0.000
    330      0      1  66.072   5.394   0.000
    331      0      1  67.420   5.394   0.000
    332      0      1  68.768   5.394   0.000
    333      0      1  70.117   5.394   0.000
    334      0      1  71.465   5.394   0.000
    335      0      1  72.814   5.394   0.000
    336      0      1  74.162   5.394   0.000
    337      0      1  75.510   5.394   0.000
    338      0      1  76.859   5.394   0.000
    339      0      1  78.207   5.394   0.000
    340      0      1  79.556   5.394   0.000
    341      0      1  80.904   5.394   0.000
    342      0      1  82.252   5.394   0.000
    343    517      2  83.601   5.394   0.000
    344      0      1  84.949   5.394   0.000
    345      0      1  86.298   5.394   0.000
    346      0      1  87.646   5.394   0.000
    347      0      1  88.994   5.394   0.000
    348      0      1  90.343   5.394   0.000
    349     24      2  91.691   5.394   0.000
    350      0      1  93.040   5.394   0.000
    351      0      1   0.000   6.742   0.000
    352      0      1   1.348   6.742   0.000
    353      0      1   2.697   6.742   0.000
    354      0      1   4.045   6.742   0.000
    355    477      2   5.394   6.742   0.000
    356    180      2   6.742   6.742   0.000
    357      0      1   8.090   6.742   0.000
    358      0      1   9.439   6.742   0.000
    359      0      1  10.787   6.742   0.000
    360      0      1  12.136   6.742   0.000
    361      0      1  13.484   6.742   0.000
    362      0      1  14.832   6.742   0.000
    363      0      1  16.181   6.742   0.000
    364      0      1  17.529   6.742   0.000
    365      0      1  18.878   6.742   0.000
    366      0      1  20.226   6.742   0.000
    367      0      1  21.574   6.742   0.000
    368      0      1  22.923   6.742   0.000
    369      0      1  24.271   6.742   0.000
    370      0      1  25.620   6.742   0.000
    371      0      1  26.968   6.742   0.000
    372      0      1  28.316   6.742   0.000
    373      0      1  29.665   6.742   0.000
    374      0      1  31.013   6.742   0.000
    375      0      1  32.362   6.742   0.000
    376      0      1  33.710   6.742   0.000
    377      0      1  35.058   6.742   0.000
    378      0      1  36.407   6.742   0.000
    379      0      1  37.755   6.742   0.000
    380      0      1  39.104   6.742   0.000
    381      0      1  40.452   6.742   0.000
    382      0      1  41.800   6.742   0.000
    383      0      1  43.149   6.742   0.000
    384      0      1  44.497   6.742   0.000
    385    351      2  45.846   6.742   0.000
    386    255      2  47.194   6.742   0.000
    387      0      1  48.542   6.742   0.000
    388      0      1  49.891   6.742   0.000
    389      0      1  51.239   6.742   0.000
    390      0      1  52.588   6.742   0.000
    391      0      1  53.936   6.742   0.000
    392      0      1  55.284   6.742   0.000
    393      0      1  56.633   6.742   0.000
    394      0      1  57.981   6.742   0.000
    395      0      1  59.330   6.742   0.000
    396      0      1  60.678   6.742   0.000
    397      0      1  62.026   6.742   0.000
    398      0      1  63.375   6.742   0.000
    399      0      1  64.723   6.742   0.000
    400      0      1  66.072   6.742   0.000
    401      0      1  67.420   6.742   0.000
    402      0      1  68.768   6.742   0.000
    403      0      1  70.117   6.742   0.000
    404      0      1  71.465   6.742   0.000
    405      0      1  72.814   6.742   0.000
    406      0      1  74.162   6.742   0.000
    407      0      1  75.510   6.742   0.000
    408      0      1  76.859   6.742   0.000
    409      0      1  78.207   6.742   0.000
    410    168      2  79.556   6.742   0.000
    411      0      1  80.904   6.742   0.000
    412      0      1  82.252   6.742   0.000
    413      0      1  83.601   6.742   0.000
    414      0      1  84.949   6.742   0.000
    415      0      1  86.298   6.742   0.000
    416      0      1  87.646   6.742   0.000
    417      0      1  88.994   6.742   0.000
    418      0      1  90.343   6.742   0.000
    419      0      1  91.691   6.742   0.000
    420      0      1  93.040   6.742   0.000
    421      0      1   0.000   8.090   0.000
    422    521      2   1.348   8.090   0.000
    423      0      1   2.697   8.090   0.000
    424      0      1   4.045   8.090   0.000
    425      0      1   5.394   8.090   0.000
    426      0      1   6.742   8.090   0.000
    427      0      1   8.090   8.090   0.000
    428      0      1   9.439   8.090   0.000
    429    199      2  10.787   8.090   0.000
    430      0      1  12.136   8.090   0.000
    431      0      1  13.484   8.090   0.000
    432      0      1  14.832   8.090   0.000
    433    396      2  16.181   8.090   0.000
    434      0      1  17.529   8.090   0.000
    435    410      2  18.878   8.090   0.000
    436      0      1  20.226   8.090   0.000
    437      0      1  21.574   8.090   0.000
    438      0      1  22.923   8.090   0.000
    439      0      1  24.271   8.090   0.000
    440      0      1  25.620   8.090   0.000
    441      0      1  26.968   8.090   0.000
    442      0      1  28.316   8.090   0.000
    443     77      2  29.665   8.090   0.000
    444      0      1  31.013   8.090   0.000
    445    259      2  32.362   8.090   0.000
    446    202      2  33.710   8.090   0.000
    447      0      1  35.058   8.090   0.000
    448      0      1  36.407   8.090   0.000
    449      0      1  37.755   8.090   0.000
    450      0      1  39.104   8.090   0.000
    451      0      1  40.452   8.090   0.000
    452    149      2  41.800   8.090   0.000
    453      0      1  43.149   8.090   0.000
    454      0      1  44.497   8.090   0.000
    455      0      1  45.846   8.090   0.000
    456      0      1  47.194   8.090   0.000
    457      0      1  48.542   8.090   0.000
    458      0      1  49.891   8.090   0.000
    459      0      1  51.239   8.090   0.000
    460      0      1  52.588   8.090   0.000
    461      0      1  53.936   8.090   0.000
    462      0      1  55.284   8.090   0.000
    463     48      2  56.633   8.090   0.000
    464      0      1  57.981   8.090   0.000
    465      0      1  59.330   8.090   0.000
    466      0      1  60.678   8.090   0.000
    467      0      1  62.026   8.090   0.000
    468      0      1  63.375   8.090   0.000
    469      0      1  64.723   8.090   0.000
    470      0      1  66.072   8.090   0.000
    471    218      2  67.420   8.090   0.000
    472      0      1  68.768   8.090   0.000
    473      0      1  70.117   8.090   0.000
    474      0      1  71.465   8.090   0.000
    475      0      1  72.814   8.090   0.000
    476      0      1  74.162   8.090   0.000
    477      0      1  75.510   8.090   0.000
    478      0      1  76.859   8.090   0.000
    479      0      1  78.207   8.090   0.000
    480      0      1  79.556   8.090   0.000
    481      0      1  80.904   8.090   0.000
    482      0      1  82.252   8.090   0.000
    483      0      1  83.601   8.090   0.000
    484      0      1  84.949   8.090   0.000
    485      0      1  86.298   8.090   0.000
    486      0      1  87.646   8.090   0.000
    487      0      1  88.994   8.090   0.000
    488      0      1  90.343   8.090   0.000
    489      0      1  91.691   8.090   0.000
    490      0      1  93.040   8.090   0.000
    491      0      1   0.000   9.439   0.000
    492      0      1   1.348   9.439   0.000
    493      0      1   2.697   9.439   0.000
    494      0      1   4.045   9.439   0.000
    495      0      1   5.394   9.439   0.000
    496      0      1   6.742   9.439   0.000
    497      0      1   8.090   9.439   0.000
    498      0      1   9.439   9.439   0.000
    499      0      1  10.787   9.439   0.000
    500      0      1  12.136   9.439   0.000
    501      0      1  13.484   9.439   0.000
    502      0      1  14.832   9.439   0.000
    503      0      1  16.181   9.439   0.000
    504      0      1  17.529   9.439   0.000
    505      0      1  18.878   9.439   0.000
    506      0      1  20.226   9.439   0.000
    507      0      1  21.574   9.439   0.000
    508      0      1  22.923   9.439   0.000
    509    280      2  24.271   9.439   0.000
    510      0      1  25.620   9.439   0.000
    511      0      1  26.968   9.439   0.000
    512      0      1  28.316   9.439   0.000
    513      0      1  29.665   9.439   0.000
    514      0      1  31.013   9.439   0.000
    515      0      1  32.362   9.439   0.000
    516      0      1  33.710   9.439   0.000
    517      0      1  35.058   9.439   0.000
    518      0      1  36.407   9.439   0.000
    519      0      1  37.755   9.439   0.000
    520      0      1  39.104   9.439   0.000
    521      0      1  40.452   9.439   0.000
    522    240      2  41.800   9.439   0.000
    523      0      1  43.149   9.439   0.000
    524      0      1  44.497   9.439   0.000
    525    258      2  45.846   9.439   0.000
    526      0      1  47.194   9.439   0.000
    527      0      1  48.542   9.439   0.000
    528    516      2  49.891   9.439   0.000
    529      0      1  51.239   9.439   0.000
    530      0      1  52.588   9.439   0.000
    531     64      2  53.936   9.439   0.000
    532      0      1  55.284   9.439   0.000
    533      0      1  56.633   9.439   0.000
    534      0      1  57.981   9.439   0.000
    535      0      1  59.330   9.439   0.000
    536    532      2  60.678   9.439   0.000
    537      0      1  62.026   9.439   0.000
    538      0      1  63.375   9.439   0.000
    539      0      1  64.723   9.439   0.000
    540      0      1  66.072   9.439   0.000
    541      0      1  67.420   9.439   0.000
    542      0      1  68.768   9.439   0.000
    543      0      1  70.117   9.439   0.000
    544      0      1  71.465   9.439   0.000
    545      0      1  72.814   9.439   0.000
    546    510      2  74.162   9.439   0.000
    547      0      1  75.510   9.439   0.000
    548      0      1  76.859   9.439   0.000
    549      0      1  78.207   9.439   0.000
    550      0      1  79.556   9.439   0.000
    551      0      1  80.904   9.439   0.000
    552      0      1  82.252   9.439   0.000
    553      0      1  83.601   9.439   0.000
    554      0      1  84.949   9.439   0.000
    555      0      1  86.298   9.439   0.000
    556      0      1  87.646   9.439   0.000
    557      0      1  88.994   9.439   0.000
    558    135      2  90.343   9.439   0.000
    559    171      2  91.691   9.439   0.000
    560      0      1  93.040   9.439   0.000
    561      0      1   0.000  10.787   0.000
    562      0      1   1.348  10.787   0.000
    563      0      1   2.697  10.787   0.000
    564      0      1   4.045  10.787   0.000
    565      0      1   5.394  10.787   0.000
    566      0      1   6.742  10.787   0.000
    567      0      1   8.090  10.787   0.000
    568      0      1   9.439  10.787   0.000
    569      0      1  10.787  10.787   0.000
    570      0      1  12.136  10.787   0.000
    571      0      1  13.484  10.787   0.000
    572      0      1  14.832  10.787   0.000
    573      0      1  16.181  10.787   0.000
    574      0      1  17.529  10.787   0.000
    575      0      1  18.878  10.787   0.000
    576      0      1  20.226  10.787   0.000
    577      0      1  21.574  10.787   0.000
    578      0      1  22.923  10.787   0.000
    579      0      1  24.271  10.787   0.000
    580      0      1  25.620  10.787   0.000
    581      0      1  26.968  10.787   0.000
    582      0      1  28.316  10.787   0.000
    583      0      1  29.665  10.787   0.000
    584      0      1  31.013  10.787   0.000
    585      0      1  32.362  10.787   0.000
    586    349      2  33.710  10.787   0.000
    587      0      1  35.058  10.787   0.000
    588    338      2  36.407  10.787   0.000
    589      0      1  37.755  10.787   0.000
    590      0      1  39.104  10.787   0.000
    591      0      1  40.452  10.787   0.000
    592      0      1  41.800  10.787   0.000
    593      0      1  43.149  10.787   0.000
    594      0      1  44.497  10.787   0.000
    595      0      1  45.846  10.787   0.000
    596      0      1  47.194  10.787   0.000
    597      0      1  48.542  10.787   0.000
    598      0      1  49.891  10.787   0.000
    599      0      1  51.239  10.787   0.000
    600      0      1  52.588  10.787   0.000
    601      0      1  53.936  10.787   0.000
    602      0      1  55.284  10.787   0.000
    603      0      1  56.633  10.787   0.000
    604      0      1  57.981  10.787   0.000
    605      0      1  59.330  10.787   0.000
    606      0      1  60.678  10.787   0.000
    607      0      1  62.026  10.787   0.000
    608      0      1  63.375  10.787   0.000
    609    454      2  64.723  10.787   0.000
    610      0      1  66.072  10.787   0.000
    611      0      1  67.420  10.787   0.000
    612      0      1  68.768  10.787   0.000
    613      0      1  70.117  10.787   0.000
    614      0      1  71.465  10.787   0.000
    615      0      1  72.814  10.787   0.000
    616      0      1  74.162  10.787   0.000
    617      0      1  75.510  10.787   0.000
    618      0      1  76.859  10.787   0.000
    619    505      2  78.207  10.787   0.000
    620      0      1  79.556  10.787   0.000
    621    285      2  80.904  10.787   0.000
    622    394      2  82.252  10.787   0.000
    623      0      1  83.601  10.787   0.000
    624      0      1  84.949  10.787   0.000
    625      0      1  86.298  10.787   0.000
    626      0      1  87.646  10.787   0.000
    627      0      1  88.994  10.787   0.000
    628    405      2  90.343  10.787   0.000
    629      0      1  91.691  10.787   0.000
    630      0      1  93.040  10.787   0.000
    631     50      2   0.000  12.136   0.000
    632      0      1   1.348  12.136   0.000
    633      0      1   2.697  12.136   0.000
    634    525      2   4.045  12.136   0.000
    635      0      1   5.394  12.136   0.000
    636      0      1   6.742  12.136   0.000
    637      0      1   8.090  12.136   0.000